[Molden Format]
[N_Atoms]
                    2
[Atoms] (AU)
N1          1      7           0.00000000      0.00000000      0.00000000
N2          2      7           0.00000000      0.00000000      2.07491929
[5D]
[Charge] (Mulliken)
   8.3488771451811772E-014
  -1.1723955140041653E-013
[GTO] (AU)
   1
   s   9
  9.046000000E+03  7.000000346E-04
  1.357000000E+03  5.389000266E-03
  3.093000000E+02  2.740600135E-02
  8.773000000E+01  1.032070051E-01
  2.856000000E+01  2.787230138E-01
  1.021000000E+01  4.485400222E-01
  3.838000000E+00  2.782380137E-01
  7.466000000E-01  1.544000076E-02
  2.248000000E-01 -2.864000141E-03
   s   9
  9.046000000E+03 -1.529999886E-04
  1.357000000E+03 -1.207999910E-03
  3.093000000E+02 -5.991999553E-03
  8.773000000E+01 -2.454399817E-02
  2.856000000E+01 -6.745899497E-02
  1.021000000E+01 -1.580779882E-01
  3.838000000E+00 -1.218309909E-01
  7.466000000E-01  5.490029590E-01
  2.248000000E-01  5.788149568E-01
   s   1
  2.248000000E-01  1.000000000E+00
   p   4
  1.355000000E+01  3.991901233E-02
  2.917000000E+00  2.171690671E-01
  7.973000000E-01  5.103191576E-01
  2.185000000E-01  4.622141427E-01
   p   1
  2.185000000E-01  1.000000000E+00
   d   1
  8.170000000E-01  1.000000000E+00
 
   2
   s   9
  9.046000000E+03  7.000000346E-04
  1.357000000E+03  5.389000266E-03
  3.093000000E+02  2.740600135E-02
  8.773000000E+01  1.032070051E-01
  2.856000000E+01  2.787230138E-01
  1.021000000E+01  4.485400222E-01
  3.838000000E+00  2.782380137E-01
  7.466000000E-01  1.544000076E-02
  2.248000000E-01 -2.864000141E-03
   s   9
  9.046000000E+03 -1.529999886E-04
  1.357000000E+03 -1.207999910E-03
  3.093000000E+02 -5.991999553E-03
  8.773000000E+01 -2.454399817E-02
  2.856000000E+01 -6.745899497E-02
  1.021000000E+01 -1.580779882E-01
  3.838000000E+00 -1.218309909E-01
  7.466000000E-01  5.490029590E-01
  2.248000000E-01  5.788149568E-01
   s   1
  2.248000000E-01  1.000000000E+00
   p   4
  1.355000000E+01  3.991901233E-02
  2.917000000E+00  2.171690671E-01
  7.973000000E-01  5.103191576E-01
  2.185000000E-01  4.622141427E-01
   p   1
  2.185000000E-01  1.000000000E+00
   d   1
  8.170000000E-01  1.000000000E+00
 
[MO]
Sym=     1a1 
Ene=   -15.6870
Spin= Alpha
Occup=    2.00000
   1         0.70691010
   2         0.00076196
   3        -0.00001952
   4         0.00000000
   5         0.00000000
   6         0.00202548
   7         0.00000000
   8         0.00000000
   9        -0.00151623
  10         0.00040129
  11         0.00000000
  12         0.00000000
  13        -0.00000000
  14         0.00000000
  15         0.70691010
  16         0.00076196
  17        -0.00001952
  18         0.00000000
  19         0.00000000
  20        -0.00202548
  21         0.00000000
  22         0.00000000
  23         0.00151623
  24         0.00040129
  25         0.00000000
  26         0.00000000
  27        -0.00000000
  28         0.00000000
Sym=     2a1 
Ene=   -15.6830
Spin= Alpha
Occup=    2.00000
   1        -0.70800248
   2        -0.00331422
   3         0.00448971
   4         0.00000000
   5         0.00000000
   6        -0.00348661
   7         0.00000000
   8         0.00000000
   9         0.00299654
  10        -0.00120939
  11         0.00000000
  12         0.00000000
  13         0.00000000
  14         0.00000000
  15         0.70800248
  16         0.00331422
  17        -0.00448971
  18         0.00000000
  19         0.00000000
  20        -0.00348661
  21         0.00000000
  22         0.00000000
  23         0.00299654
  24         0.00120939
  25         0.00000000
  26         0.00000000
  27        -0.00000000
  28         0.00000000
Sym=     3a1 
Ene=    -1.4710
Spin= Alpha
Occup=    2.00000
   1        -0.00863695
   2         0.66596757
   3        -0.19135548
   4         0.00000000
   5         0.00000000
   6         0.32131681
   7         0.00000000
   8         0.00000000
   9        -0.11224362
  10         0.02853820
  11         0.00000000
  12         0.00000000
  13         0.00000000
  14         0.00000000
  15        -0.00863695
  16         0.66596757
  17        -0.19135548
  18         0.00000000
  19         0.00000000
  20        -0.32131681
  21         0.00000000
  22         0.00000000
  23         0.11224362
  24         0.02853820
  25         0.00000000
  26         0.00000000
  27         0.00000000
  28         0.00000000
Sym=     4a1 
Ene=    -0.7742
Spin= Alpha
Occup=    2.00000
   1        -0.00347336
   2        -0.65280999
   3        -0.04407479
   4         0.00000000
   5         0.00000000
   6         0.31855733
   7         0.00000000
   8         0.00000000
   9        -0.03313741
  10         0.01341512
  11         0.00000000
  12         0.00000000
  13        -0.00000000
  14         0.00000000
  15         0.00347336
  16         0.65280999
  17         0.04407479
  18         0.00000000
  19         0.00000000
  20         0.31855733
  21         0.00000000
  22         0.00000000
  23        -0.03313741
  24        -0.01341512
  25         0.00000000
  26         0.00000000
  27         0.00000000
  28         0.00000000
Sym=     5a1 
Ene=    -0.6262
Spin= Alpha
Occup=    2.00000
   1        -0.01143738
   2         0.19159673
   3         0.21964217
   4         0.00000000
   5         0.00000000
   6        -0.67032876
   7         0.00000000
   8         0.00000000
   9         0.09651874
  10        -0.02498062
  11         0.00000000
  12         0.00000000
  13        -0.00000000
  14         0.00000000
  15        -0.01143738
  16         0.19159673
  17         0.21964217
  18         0.00000000
  19         0.00000000
  20         0.67032876
  21         0.00000000
  22         0.00000000
  23        -0.09651874
  24        -0.02498062
  25         0.00000000
  26         0.00000000
  27         0.00000000
  28         0.00000000
Sym=     6a1 
Ene=     0.5945
Spin= Alpha
Occup=    0.00000
   1        -0.03073966
   2         0.33634244
   3         3.74443570
   4         0.00000000
   5         0.00000000
   6         0.08936111
   7         0.00000000
   8         0.00000000
   9         2.59085590
  10         0.05378919
  11         0.00000000
  12         0.00000000
  13        -0.00000000
  14         0.00000000
  15         0.03073966
  16        -0.33634244
  17        -3.74443570
  18         0.00000000
  19         0.00000000
  20         0.08936111
  21         0.00000000
  22         0.00000000
  23         2.59085590
  24        -0.05378919
  25         0.00000000
  26         0.00000000
  27         0.00000000
  28         0.00000000
Sym=     7a1 
Ene=     0.8202
Spin= Alpha
Occup=    0.00000
   1         0.15762706
   2         0.60126050
   3        -0.35006279
   4         0.00000000
   5         0.00000000
   6         0.67920698
   7         0.00000000
   8         0.00000000
   9        -1.25975841
  10         0.07148340
  11         0.00000000
  12         0.00000000
  13        -0.00000000
  14         0.00000000
  15         0.15762706
  16         0.60126050
  17        -0.35006279
  18         0.00000000
  19         0.00000000
  20        -0.67920698
  21         0.00000000
  22         0.00000000
  23         1.25975841
  24         0.07148340
  25         0.00000000
  26         0.00000000
  27        -0.00000000
  28         0.00000000
Sym=     8a1 
Ene=     0.9922
Spin= Alpha
Occup=    0.00000
   1         0.42687151
   2         2.07020899
   3        -2.13061316
   4         0.00000000
   5         0.00000000
   6        -0.39694993
   7         0.00000000
   8         0.00000000
   9         0.36489994
  10         0.06362098
  11         0.00000000
  12         0.00000000
  13        -0.00000000
  14         0.00000000
  15         0.42687151
  16         2.07020899
  17        -2.13061316
  18         0.00000000
  19         0.00000000
  20         0.39694993
  21         0.00000000
  22         0.00000000
  23        -0.36489994
  24         0.06362098
  25         0.00000000
  26         0.00000000
  27        -0.00000000
  28         0.00000000
Sym=     9a1 
Ene=     1.1439
Spin= Alpha
Occup=    0.00000
   1        -0.14504524
   2        -0.45012659
   3         0.90380966
   4         0.00000000
   5         0.00000000
   6         1.11523666
   7         0.00000000
   8         0.00000000
   9        -0.70489428
  10        -0.23041200
  11         0.00000000
  12         0.00000000
  13        -0.00000000
  14         0.00000000
  15         0.14504524
  16         0.45012659
  17        -0.90380966
  18         0.00000000
  19         0.00000000
  20         1.11523666
  21         0.00000000
  22         0.00000000
  23        -0.70489428
  24         0.23041200
  25         0.00000000
  26         0.00000000
  27         0.00000000
  28         0.00000000
Sym=    10a1 
Ene=     1.6429
Spin= Alpha
Occup=    0.00000
   1        -0.64683373
   2        -2.86718658
   3         7.74783856
   4         0.00000000
   5         0.00000000
   6        -0.18916743
   7         0.00000000
   8         0.00000000
   9         2.82273744
  10         0.21709259
  11         0.00000000
  12         0.00000000
  13        -0.00000000
  14         0.00000000
  15         0.64683373
  16         2.86718658
  17        -7.74783856
  18         0.00000000
  19         0.00000000
  20        -0.18916743
  21         0.00000000
  22         0.00000000
  23         2.82273744
  24        -0.21709259
  25         0.00000000
  26         0.00000000
  27         0.00000000
  28         0.00000000
Sym=    11a1 
Ene=     1.7575
Spin= Alpha
Occup=    0.00000
   1         0.00000000
   2         0.00000000
   3        -0.00000000
   4         0.00000000
   5         0.00000000
   6        -0.00000000
   7         0.00000000
   8         0.00000000
   9        -0.00000000
  10         0.00000000
  11         0.00000000
  12         0.00000000
  13         0.65308811
  14         0.00000000
  15        -0.00000000
  16        -0.00000000
  17         0.00000000
  18         0.00000000
  19         0.00000000
  20         0.00000000
  21         0.00000000
  22         0.00000000
  23        -0.00000000
  24         0.00000000
  25         0.00000000
  26         0.00000000
  27         0.65308811
  28         0.00000000
Sym=    12a1 
Ene=     2.2988
Spin= Alpha
Occup=    0.00000
   1         0.00000000
   2         0.00000000
   3        -0.00000000
   4         0.00000000
   5         0.00000000
   6         0.00000000
   7         0.00000000
   8         0.00000000
   9        -0.00000000
  10         0.00000000
  11         0.00000000
  12         0.00000000
  13        -0.77721256
  14         0.00000000
  15        -0.00000000
  16        -0.00000000
  17         0.00000000
  18         0.00000000
  19         0.00000000
  20         0.00000000
  21         0.00000000
  22         0.00000000
  23        -0.00000000
  24        -0.00000000
  25         0.00000000
  26         0.00000000
  27         0.77721256
  28         0.00000000
Sym=    13a1 
Ene=     2.8741
Spin= Alpha
Occup=    0.00000
   1        -0.38681011
   2        -1.45167817
   3         1.16830019
   4         0.00000000
   5         0.00000000
   6        -0.54009008
   7         0.00000000
   8         0.00000000
   9         0.79981161
  10         0.83512267
  11         0.00000000
  12         0.00000000
  13        -0.00000000
  14         0.00000000
  15        -0.38681011
  16        -1.45167817
  17         1.16830019
  18         0.00000000
  19         0.00000000
  20         0.54009008
  21         0.00000000
  22         0.00000000
  23        -0.79981161
  24         0.83512267
  25         0.00000000
  26         0.00000000
  27        -0.00000000
  28         0.00000000
Sym=    14a1 
Ene=     3.2831
Spin= Alpha
Occup=    0.00000
   1         0.18010207
   2         0.95996656
   3         2.66340098
   4         0.00000000
   5         0.00000000
   6         1.58184768
   7         0.00000000
   8         0.00000000
   9         0.90088442
  10         1.19988923
  11         0.00000000
  12         0.00000000
  13         0.00000000
  14         0.00000000
  15        -0.18010207
  16        -0.95996656
  17        -2.66340098
  18         0.00000000
  19         0.00000000
  20         1.58184768
  21         0.00000000
  22         0.00000000
  23         0.90088442
  24        -1.19988923
  25         0.00000000
  26         0.00000000
  27        -0.00000000
  28         0.00000000
Sym=     1b1 
Ene=    -0.6080
Spin= Alpha
Occup=    2.00000
   1         0.00000000
   2         0.00000000
   3         0.00000000
   4         0.62922666
   5         0.00000000
   6         0.00000000
   7        -0.03384861
   8         0.00000000
   9         0.00000000
  10         0.00000000
  11         0.04753091
  12         0.00000000
  13         0.00000000
  14         0.00000000
  15         0.00000000
  16         0.00000000
  17         0.00000000
  18         0.62922666
  19         0.00000000
  20         0.00000000
  21        -0.03384861
  22         0.00000000
  23         0.00000000
  24         0.00000000
  25        -0.04753091
  26         0.00000000
  27         0.00000000
  28         0.00000000
Sym=     2b1 
Ene=     0.1755
Spin= Alpha
Occup=    0.00000
   1         0.00000000
   2         0.00000000
   3         0.00000000
   4        -0.63125708
   5         0.00000000
   6         0.00000000
   7        -0.38538620
   8         0.00000000
   9         0.00000000
  10         0.00000000
  11         0.01297092
  12         0.00000000
  13         0.00000000
  14         0.00000000
  15         0.00000000
  16         0.00000000
  17         0.00000000
  18         0.63125708
  19         0.00000000
  20         0.00000000
  21         0.38538620
  22         0.00000000
  23         0.00000000
  24         0.00000000
  25         0.01297092
  26         0.00000000
  27         0.00000000
  28         0.00000000
Sym=     3b1 
Ene=     0.8723
Spin= Alpha
Occup=    0.00000
   1         0.00000000
   2         0.00000000
   3         0.00000000
   4        -0.94791316
   5         0.00000000
   6         0.00000000
   7         1.05805247
   8         0.00000000
   9         0.00000000
  10         0.00000000
  11        -0.10342277
  12         0.00000000
  13         0.00000000
  14         0.00000000
  15         0.00000000
  16         0.00000000
  17         0.00000000
  18        -0.94791316
  19         0.00000000
  20         0.00000000
  21         1.05805247
  22         0.00000000
  23         0.00000000
  24         0.00000000
  25         0.10342277
  26         0.00000000
  27         0.00000000
  28         0.00000000
Sym=     4b1 
Ene=     1.0510
Spin= Alpha
Occup=    0.00000
   1         0.00000000
   2         0.00000000
   3         0.00000000
   4         1.08111592
   5         0.00000000
   6         0.00000000
   7        -1.65683285
   8         0.00000000
   9         0.00000000
  10         0.00000000
  11        -0.06864369
  12         0.00000000
  13         0.00000000
  14         0.00000000
  15         0.00000000
  16         0.00000000
  17         0.00000000
  18        -1.08111592
  19         0.00000000
  20         0.00000000
  21         1.65683285
  22         0.00000000
  23         0.00000000
  24         0.00000000
  25        -0.06864369
  26         0.00000000
  27         0.00000000
  28         0.00000000
Sym=     5b1 
Ene=     1.8817
Spin= Alpha
Occup=    0.00000
   1         0.00000000
   2         0.00000000
   3         0.00000000
   4         0.42694691
   5         0.00000000
   6         0.00000000
   7        -0.26633354
   8         0.00000000
   9         0.00000000
  10         0.00000000
  11        -0.59536458
  12         0.00000000
  13         0.00000000
  14         0.00000000
  15         0.00000000
  16         0.00000000
  17         0.00000000
  18         0.42694691
  19         0.00000000
  20         0.00000000
  21        -0.26633354
  22         0.00000000
  23         0.00000000
  24         0.00000000
  25         0.59536458
  26         0.00000000
  27         0.00000000
  28         0.00000000
Sym=     6b1 
Ene=     2.9961
Spin= Alpha
Occup=    0.00000
   1         0.00000000
   2         0.00000000
   3         0.00000000
   4         0.35855893
   5         0.00000000
   6         0.00000000
   7         0.29774881
   8         0.00000000
   9         0.00000000
  10         0.00000000
  11         1.10335490
  12         0.00000000
  13         0.00000000
  14         0.00000000
  15         0.00000000
  16         0.00000000
  17         0.00000000
  18        -0.35855893
  19         0.00000000
  20         0.00000000
  21        -0.29774881
  22         0.00000000
  23         0.00000000
  24         0.00000000
  25         1.10335490
  26         0.00000000
  27         0.00000000
  28         0.00000000
Sym=     1a2 
Ene=     1.7575
Spin= Alpha
Occup=    0.00000
   1         0.00000000
   2         0.00000000
   3         0.00000000
   4         0.00000000
   5         0.00000000
   6         0.00000000
   7         0.00000000
   8         0.00000000
   9         0.00000000
  10         0.00000000
  11         0.00000000
  12         0.00000000
  13         0.00000000
  14         0.65308811
  15         0.00000000
  16         0.00000000
  17         0.00000000
  18         0.00000000
  19         0.00000000
  20         0.00000000
  21         0.00000000
  22         0.00000000
  23         0.00000000
  24         0.00000000
  25         0.00000000
  26         0.00000000
  27         0.00000000
  28         0.65308811
Sym=     2a2 
Ene=     2.2988
Spin= Alpha
Occup=    0.00000
   1         0.00000000
   2         0.00000000
   3         0.00000000
   4         0.00000000
   5         0.00000000
   6         0.00000000
   7         0.00000000
   8         0.00000000
   9         0.00000000
  10         0.00000000
  11         0.00000000
  12         0.00000000
  13         0.00000000
  14        -0.77721256
  15         0.00000000
  16         0.00000000
  17         0.00000000
  18         0.00000000
  19         0.00000000
  20         0.00000000
  21         0.00000000
  22         0.00000000
  23         0.00000000
  24         0.00000000
  25         0.00000000
  26         0.00000000
  27         0.00000000
  28         0.77721256
Sym=     1b2 
Ene=    -0.6080
Spin= Alpha
Occup=    2.00000
   1         0.00000000
   2         0.00000000
   3         0.00000000
   4         0.00000000
   5         0.62922666
   6         0.00000000
   7         0.00000000
   8        -0.03384861
   9         0.00000000
  10         0.00000000
  11         0.00000000
  12         0.04753091
  13         0.00000000
  14         0.00000000
  15         0.00000000
  16         0.00000000
  17         0.00000000
  18         0.00000000
  19         0.62922666
  20         0.00000000
  21         0.00000000
  22        -0.03384861
  23         0.00000000
  24         0.00000000
  25         0.00000000
  26        -0.04753091
  27         0.00000000
  28         0.00000000
Sym=     2b2 
Ene=     0.1755
Spin= Alpha
Occup=    0.00000
   1         0.00000000
   2         0.00000000
   3         0.00000000
   4         0.00000000
   5        -0.63125708
   6         0.00000000
   7         0.00000000
   8        -0.38538620
   9         0.00000000
  10         0.00000000
  11         0.00000000
  12         0.01297092
  13         0.00000000
  14         0.00000000
  15         0.00000000
  16         0.00000000
  17         0.00000000
  18         0.00000000
  19         0.63125708
  20         0.00000000
  21         0.00000000
  22         0.38538620
  23         0.00000000
  24         0.00000000
  25         0.00000000
  26         0.01297092
  27         0.00000000
  28         0.00000000
Sym=     3b2 
Ene=     0.8723
Spin= Alpha
Occup=    0.00000
   1         0.00000000
   2         0.00000000
   3         0.00000000
   4         0.00000000
   5        -0.94791316
   6         0.00000000
   7         0.00000000
   8         1.05805247
   9         0.00000000
  10         0.00000000
  11         0.00000000
  12        -0.10342277
  13         0.00000000
  14         0.00000000
  15         0.00000000
  16         0.00000000
  17         0.00000000
  18         0.00000000
  19        -0.94791316
  20         0.00000000
  21         0.00000000
  22         1.05805247
  23         0.00000000
  24         0.00000000
  25         0.00000000
  26         0.10342277
  27         0.00000000
  28         0.00000000
Sym=     4b2 
Ene=     1.0510
Spin= Alpha
Occup=    0.00000
   1         0.00000000
   2         0.00000000
   3         0.00000000
   4         0.00000000
   5         1.08111592
   6         0.00000000
   7         0.00000000
   8        -1.65683285
   9         0.00000000
  10         0.00000000
  11         0.00000000
  12        -0.06864369
  13         0.00000000
  14         0.00000000
  15         0.00000000
  16         0.00000000
  17         0.00000000
  18         0.00000000
  19        -1.08111592
  20         0.00000000
  21         0.00000000
  22         1.65683285
  23         0.00000000
  24         0.00000000
  25         0.00000000
  26        -0.06864369
  27         0.00000000
  28         0.00000000
Sym=     5b2 
Ene=     1.8817
Spin= Alpha
Occup=    0.00000
   1         0.00000000
   2         0.00000000
   3         0.00000000
   4         0.00000000
   5         0.42694691
   6         0.00000000
   7         0.00000000
   8        -0.26633354
   9         0.00000000
  10         0.00000000
  11         0.00000000
  12        -0.59536458
  13         0.00000000
  14         0.00000000
  15         0.00000000
  16         0.00000000
  17         0.00000000
  18         0.00000000
  19         0.42694691
  20         0.00000000
  21         0.00000000
  22        -0.26633354
  23         0.00000000
  24         0.00000000
  25         0.00000000
  26         0.59536458
  27         0.00000000
  28         0.00000000
Sym=     6b2 
Ene=     2.9961
Spin= Alpha
Occup=    0.00000
   1         0.00000000
   2         0.00000000
   3         0.00000000
   4         0.00000000
   5         0.35855893
   6         0.00000000
   7         0.00000000
   8         0.29774881
   9         0.00000000
  10         0.00000000
  11         0.00000000
  12         1.10335490
  13         0.00000000
  14         0.00000000
  15         0.00000000
  16         0.00000000
  17         0.00000000
  18         0.00000000
  19        -0.35855893
  20         0.00000000
  21         0.00000000
  22        -0.29774881
  23         0.00000000
  24         0.00000000
  25         0.00000000
  26         1.10335490
  27         0.00000000
  28         0.00000000
