[Molden Format]
made by pyscf v[2.13.0]
[Atoms] (AU)
N   1   7     0.00000000000000     0.00000000000000     0.00000000000000
N   2   7     0.00000000000000     0.00000000000000     2.07491928477244
[GTO]
1 0
 s    9 1.00
                 45840  9.2710633559608e-05
                  6868  0.00072253830719825
                  1563   0.003777958317554
                 442.4   0.015651973483129
                 144.3   0.053556514469119
                 52.18    0.14792082356863
                 20.34    0.30701630165403
                 8.381     0.4007558217013
                 3.529    0.21932211954942
 s    9 1.00
                 45840  -5.7338677874064e-05
                  6868  -0.00045584248909881
                  1563  -0.0023623535284115
                 442.4  -0.0099711960822998
                 144.3  -0.034305730972053
                 52.18   -0.10145505663037
                 20.34   -0.22957546540607
                 8.381   -0.42064227475192
                 3.529   -0.33359642787131
 s    1 1.00
                 1.054                   1
 s    1 1.00
                0.4118                   1
 s    1 1.00
                0.1552                   1
 p    3 1.00
                 49.33   0.031126097368555
                 11.37    0.21355664346739
                 3.435    0.83836255894469
 p    1 1.00
                 1.182                   1
 p    1 1.00
                0.4173                   1
 p    1 1.00
                0.1428                   1
 d    1 1.00
                 2.837                   1
 d    1 1.00
                 0.968                   1
 d    1 1.00
                 0.335                   1
 f    1 1.00
                 2.027                   1
 f    1 1.00
                 0.685                   1
 g    1 1.00
                 1.427                   1

2 0
 s    9 1.00
                 45840  9.2710633559608e-05
                  6868  0.00072253830719825
                  1563   0.003777958317554
                 442.4   0.015651973483129
                 144.3   0.053556514469119
                 52.18    0.14792082356863
                 20.34    0.30701630165403
                 8.381     0.4007558217013
                 3.529    0.21932211954942
 s    9 1.00
                 45840  -5.7338677874064e-05
                  6868  -0.00045584248909881
                  1563  -0.0023623535284115
                 442.4  -0.0099711960822998
                 144.3  -0.034305730972053
                 52.18   -0.10145505663037
                 20.34   -0.22957546540607
                 8.381   -0.42064227475192
                 3.529   -0.33359642787131
 s    1 1.00
                 1.054                   1
 s    1 1.00
                0.4118                   1
 s    1 1.00
                0.1552                   1
 p    3 1.00
                 49.33   0.031126097368555
                 11.37    0.21355664346739
                 3.435    0.83836255894469
 p    1 1.00
                 1.182                   1
 p    1 1.00
                0.4173                   1
 p    1 1.00
                0.1428                   1
 d    1 1.00
                 2.837                   1
 d    1 1.00
                 0.968                   1
 d    1 1.00
                 0.335                   1
 f    1 1.00
                 2.027                   1
 f    1 1.00
                 0.685                   1
 g    1 1.00
                 1.427                   1

[5d]
[7f]
[9g]

[MO]
 Sym= A1g
 Ene=    -15.68219196
 Spin= Alpha
 Occup=    2.00000
   1       0.7016121100612
   2    0.00042074302129002
   3     0.012263410631688
   4    -0.0016526437551377
   5    0.00067515537939969
   6                     0
   7                     0
   8    0.0011816527129872
   9                     0
  10                     0
  11    7.788294779428e-05
  12                     0
  13                     0
  14    0.00049493210209676
  15                     0
  16                     0
  17    1.0330024272122e-05
  18    0.00010657136544958
  19                     0
  20                     0
  21                     0
  22                     0
  23    0.00045731363454855
  24                     0
  25                     0
  26                     0
  27                     0
  28    0.00010232083225848
  29                     0
  30                     0
  31                     0
  32                     0
  33    0.0001732199022457
  34                     0
  35                     0
  36                     0
  37                     0
  38                     0
  39                     0
  40    9.0840323564267e-05
  41                     0
  42                     0
  43                     0
  44                     0
  45                     0
  46                     0
  47    0.00013786136374346
  48                     0
  49                     0
  50                     0
  51                     0
  52                     0
  53                     0
  54                     0
  55                     0
  56       0.7016121100612
  57    0.00042074302129002
  58     0.012263410631688
  59    -0.0016526437551377
  60    0.00067515537939969
  61                     0
  62                     0
  63    -0.0011816527129872
  64                     0
  65                     0
  66    -7.788294779428e-05
  67                     0
  68                     0
  69    -0.00049493210209676
  70                     0
  71                     0
  72    -1.0330024272122e-05
  73    0.00010657136544958
  74                     0
  75                     0
  76                     0
  77                     0
  78    0.00045731363454855
  79                     0
  80                     0
  81                     0
  82                     0
  83    0.00010232083225848
  84                     0
  85                     0
  86                     0
  87                     0
  88    -0.0001732199022457
  89                     0
  90                     0
  91                     0
  92                     0
  93                     0
  94                     0
  95    -9.0840323564267e-05
  96                     0
  97                     0
  98                     0
  99                     0
 100                     0
 101                     0
 102    0.00013786136374346
 103                     0
 104                     0
 105                     0
 106                     0
 107                     0
 108                     0
 109                     0
 110                     0
 Sym= A1u
 Ene=    -15.67865699
 Spin= Alpha
 Occup=    2.00000
   1      0.70192967835913
   2    0.00025108027042073
   3     0.012834066562977
   4    -0.0050514186403228
   5    0.0016046599001613
   6                     0
   7                     0
   8      0.00108375015722
   9                     0
  10                     0
  11    -0.00030215116920389
  12                     0
  13                     0
  14    -0.0017867425722234
  15                     0
  16                     0
  17    0.00035100568078989
  18    0.00016398445225298
  19                     0
  20                     0
  21                     0
  22                     0
  23    -0.00015016641047465
  24                     0
  25                     0
  26                     0
  27                     0
  28    -0.00043308103954812
  29                     0
  30                     0
  31                     0
  32                     0
  33    -7.1608801964517e-06
  34                     0
  35                     0
  36                     0
  37                     0
  38                     0
  39                     0
  40    -0.00011688363442218
  41                     0
  42                     0
  43                     0
  44                     0
  45                     0
  46                     0
  47    -6.3445413984239e-05
  48                     0
  49                     0
  50                     0
  51                     0
  52                     0
  53                     0
  54                     0
  55                     0
  56     -0.70192967835913
  57    -0.00025108027042073
  58    -0.012834066562977
  59    0.0050514186403228
  60    -0.0016046599001613
  61                     0
  62                     0
  63      0.00108375015722
  64                     0
  65                     0
  66    -0.00030215116920389
  67                     0
  68                     0
  69    -0.0017867425722234
  70                     0
  71                     0
  72    0.00035100568078989
  73    -0.00016398445225298
  74                     0
  75                     0
  76                     0
  77                     0
  78    0.00015016641047465
  79                     0
  80                     0
  81                     0
  82                     0
  83    0.00043308103954812
  84                     0
  85                     0
  86                     0
  87                     0
  88    -7.1608801964517e-06
  89                     0
  90                     0
  91                     0
  92                     0
  93                     0
  94                     0
  95    -0.00011688363442218
  96                     0
  97                     0
  98                     0
  99                     0
 100                     0
 101                     0
 102    6.3445413984239e-05
 103                     0
 104                     0
 105                     0
 106                     0
 107                     0
 108                     0
 109                     0
 110                     0
 Sym= A1g
 Ene=    -1.469969434
 Spin= Alpha
 Occup=    2.00000
   1    -0.0062021158326199
   2      0.23406313014872
   3      0.18563666125364
   4      0.30390294280431
   5     0.068945011263145
   6                    -0
   7                    -0
   8      0.06025571496892
   9                    -0
  10                    -0
  11      0.11642144319535
  12                    -0
  13                    -0
  14     0.098486182033745
  15                    -0
  16                    -0
  17     0.011427305447184
  18    0.0067889674130897
  19                    -0
  20                    -0
  21                    -0
  22                    -0
  23     0.022903437408466
  24                    -0
  25                    -0
  26                    -0
  27                    -0
  28     0.016200578791988
  29                    -0
  30                    -0
  31                    -0
  32                    -0
  33    0.0025748900435042
  34                    -0
  35                    -0
  36                    -0
  37                    -0
  38                    -0
  39                    -0
  40    0.0065989527655365
  41                    -0
  42                    -0
  43                    -0
  44                    -0
  45                    -0
  46                    -0
  47    0.0011757571663325
  48                    -0
  49                    -0
  50                    -0
  51                    -0
  52                    -0
  53                    -0
  54                    -0
  55                    -0
  56    -0.0062021158326199
  57      0.23406313014872
  58      0.18563666125364
  59      0.30390294280431
  60     0.068945011263145
  61                    -0
  62                    -0
  63     -0.06025571496892
  64                    -0
  65                    -0
  66     -0.11642144319535
  67                    -0
  68                    -0
  69    -0.098486182033745
  70                    -0
  71                    -0
  72    -0.011427305447184
  73    0.0067889674130897
  74                    -0
  75                    -0
  76                    -0
  77                    -0
  78     0.022903437408466
  79                    -0
  80                    -0
  81                    -0
  82                    -0
  83     0.016200578791988
  84                    -0
  85                    -0
  86                    -0
  87                    -0
  88    -0.0025748900435042
  89                    -0
  90                    -0
  91                    -0
  92                    -0
  93                    -0
  94                    -0
  95    -0.0065989527655365
  96                    -0
  97                    -0
  98                    -0
  99                    -0
 100                    -0
 101                    -0
 102    0.0011757571663325
 103                    -0
 104                    -0
 105                    -0
 106                    -0
 107                    -0
 108                    -0
 109                    -0
 110                    -0
 Sym= A1u
 Ene=   -0.7785386818
 Spin= Alpha
 Occup=    2.00000
   1    0.0020480212481054
   2      0.22640308701903
   3      0.18299556841615
   4      0.38908592585981
   5      0.23155476806647
   6                     0
   7                     0
   8    -0.057914601505598
   9                     0
  10                     0
  11     -0.10869598954127
  12                     0
  13                     0
  14     -0.13637407782612
  15                     0
  16                     0
  17    -0.051919164561826
  18    -0.0013663185706152
  19                     0
  20                     0
  21                     0
  22                     0
  23    -0.0055187232926247
  24                     0
  25                     0
  26                     0
  27                     0
  28    -0.0058673690316629
  29                     0
  30                     0
  31                     0
  32                     0
  33    -0.00012487989129791
  34                     0
  35                     0
  36                     0
  37                     0
  38                     0
  39                     0
  40    0.00011216900843741
  41                     0
  42                     0
  43                     0
  44                     0
  45                     0
  46                     0
  47    -6.4550575258122e-05
  48                     0
  49                     0
  50                     0
  51                     0
  52                     0
  53                     0
  54                     0
  55                     0
  56    -0.0020480212481054
  57     -0.22640308701903
  58     -0.18299556841615
  59     -0.38908592585981
  60     -0.23155476806647
  61                     0
  62                     0
  63    -0.057914601505598
  64                     0
  65                     0
  66     -0.10869598954127
  67                     0
  68                     0
  69     -0.13637407782612
  70                     0
  71                     0
  72    -0.051919164561826
  73    0.0013663185706152
  74                     0
  75                     0
  76                     0
  77                     0
  78    0.0055187232926247
  79                     0
  80                     0
  81                     0
  82                     0
  83    0.0058673690316629
  84                     0
  85                     0
  86                     0
  87                     0
  88    -0.00012487989129791
  89                     0
  90                     0
  91                     0
  92                     0
  93                     0
  94                     0
  95    0.00011216900843741
  96                     0
  97                     0
  98                     0
  99                     0
 100                     0
 101                     0
 102    6.4550575258122e-05
 103                     0
 104                     0
 105                     0
 106                     0
 107                     0
 108                     0
 109                     0
 110                     0
 Sym= A1g
 Ene=   -0.6336316255
 Spin= Alpha
 Occup=    2.00000
   1    -0.0019820736462462
   2    -0.081494517828025
   3    -0.063249208560264
   4     -0.16317751586237
   5     -0.22456087982228
   6                    -0
   7                    -0
   8      0.12359245276872
   9                    -0
  10                    -0
  11      0.24038818981667
  12                    -0
  13                    -0
  14      0.25560419327019
  15                    -0
  16                    -0
  17       0.1026595181122
  18    0.0060210801911478
  19                    -0
  20                    -0
  21                    -0
  22                    -0
  23     0.020229367670035
  24                    -0
  25                    -0
  26                    -0
  27                    -0
  28    0.0079361469343535
  29                    -0
  30                    -0
  31                    -0
  32                    -0
  33    0.0023594314503491
  34                    -0
  35                    -0
  36                    -0
  37                    -0
  38                    -0
  39                    -0
  40    0.0024850307497874
  41                    -0
  42                    -0
  43                    -0
  44                    -0
  45                    -0
  46                    -0
  47    0.0014598147055621
  48                    -0
  49                    -0
  50                    -0
  51                    -0
  52                    -0
  53                    -0
  54                    -0
  55                    -0
  56    -0.0019820736462462
  57    -0.081494517828025
  58    -0.063249208560264
  59     -0.16317751586237
  60     -0.22456087982228
  61                    -0
  62                    -0
  63     -0.12359245276872
  64                    -0
  65                    -0
  66     -0.24038818981667
  67                    -0
  68                    -0
  69     -0.25560419327019
  70                    -0
  71                    -0
  72      -0.1026595181122
  73    0.0060210801911478
  74                    -0
  75                    -0
  76                    -0
  77                    -0
  78     0.020229367670035
  79                    -0
  80                    -0
  81                    -0
  82                    -0
  83    0.0079361469343535
  84                    -0
  85                    -0
  86                    -0
  87                    -0
  88    -0.0023594314503491
  89                    -0
  90                    -0
  91                    -0
  92                    -0
  93                    -0
  94                    -0
  95    -0.0024850307497874
  96                    -0
  97                    -0
  98                    -0
  99                    -0
 100                    -0
 101                    -0
 102    0.0014598147055621
 103                    -0
 104                    -0
 105                    -0
 106                    -0
 107                    -0
 108                    -0
 109                    -0
 110                    -0
 Sym= E1uy
 Ene=    -0.613128476
 Spin= Alpha
 Occup=    2.00000
   1                    -0
   2                    -0
   3                    -0
   4                    -0
   5                    -0
   6                    -0
   7      0.11230239624487
   8                    -0
   9                    -0
  10      0.21664927144646
  11                    -0
  12                    -0
  13      0.27461305239689
  14                    -0
  15                    -0
  16      0.12450839771811
  17                    -0
  18                    -0
  19                    -0
  20    0.0062192256238791
  21                    -0
  22                    -0
  23                    -0
  24                    -0
  25     0.027366905368919
  26                    -0
  27                    -0
  28                    -0
  29                    -0
  30     0.028327564773841
  31                    -0
  32                    -0
  33                    -0
  34                    -0
  35    0.0031541192801018
  36                    -0
  37                    -0
  38                    -0
  39                    -0
  40                    -0
  41                    -0
  42    0.0071480517116444
  43                    -0
  44                    -0
  45                    -0
  46                    -0
  47                    -0
  48                    -0
  49    0.0019228152403395
  50                    -0
  51                    -0
  52                    -0
  53                    -0
  54                    -0
  55                    -0
  56                    -0
  57                    -0
  58                    -0
  59                    -0
  60                    -0
  61                    -0
  62      0.11230239624487
  63                    -0
  64                    -0
  65      0.21664927144646
  66                    -0
  67                    -0
  68      0.27461305239689
  69                    -0
  70                    -0
  71      0.12450839771811
  72                    -0
  73                    -0
  74                    -0
  75    -0.0062192256238791
  76                    -0
  77                    -0
  78                    -0
  79                    -0
  80    -0.027366905368919
  81                    -0
  82                    -0
  83                    -0
  84                    -0
  85    -0.028327564773841
  86                    -0
  87                    -0
  88                    -0
  89                    -0
  90    0.0031541192801018
  91                    -0
  92                    -0
  93                    -0
  94                    -0
  95                    -0
  96                    -0
  97    0.0071480517116444
  98                    -0
  99                    -0
 100                    -0
 101                    -0
 102                    -0
 103                    -0
 104    -0.0019228152403395
 105                    -0
 106                    -0
 107                    -0
 108                    -0
 109                    -0
 110                    -0
 Sym= E1ux
 Ene=    -0.613128476
 Spin= Alpha
 Occup=    2.00000
   1                    -0
   2                    -0
   3                    -0
   4                    -0
   5                    -0
   6      0.11230239624487
   7                    -0
   8                    -0
   9      0.21664927144646
  10                    -0
  11                    -0
  12      0.27461305239689
  13                    -0
  14                    -0
  15      0.12450839771811
  16                    -0
  17                    -0
  18                    -0
  19    0.0062192256238791
  20                    -0
  21                    -0
  22                    -0
  23                    -0
  24     0.027366905368919
  25                    -0
  26                    -0
  27                    -0
  28                    -0
  29     0.028327564773841
  30                    -0
  31                    -0
  32                    -0
  33                    -0
  34    0.0031541192801018
  35                    -0
  36                    -0
  37                    -0
  38                    -0
  39                    -0
  40                    -0
  41    0.0071480517116444
  42                    -0
  43                    -0
  44                    -0
  45                    -0
  46                    -0
  47                    -0
  48    0.0019228152403395
  49                    -0
  50                    -0
  51                    -0
  52                    -0
  53                    -0
  54                    -0
  55                    -0
  56                    -0
  57                    -0
  58                    -0
  59                    -0
  60                    -0
  61      0.11230239624487
  62                    -0
  63                    -0
  64      0.21664927144646
  65                    -0
  66                    -0
  67      0.27461305239689
  68                    -0
  69                    -0
  70      0.12450839771811
  71                    -0
  72                    -0
  73                    -0
  74    -0.0062192256238791
  75                    -0
  76                    -0
  77                    -0
  78                    -0
  79    -0.027366905368919
  80                    -0
  81                    -0
  82                    -0
  83                    -0
  84    -0.028327564773841
  85                    -0
  86                    -0
  87                    -0
  88                    -0
  89    0.0031541192801018
  90                    -0
  91                    -0
  92                    -0
  93                    -0
  94                    -0
  95                    -0
  96    0.0071480517116444
  97                    -0
  98                    -0
  99                    -0
 100                    -0
 101                    -0
 102                    -0
 103    -0.0019228152403395
 104                    -0
 105                    -0
 106                    -0
 107                    -0
 108                    -0
 109                    -0
 110                    -0
 Sym= E1gx
 Ene=    0.1537219062
 Spin= Alpha
 Occup=    0.00000
   1                     0
   2                     0
   3                     0
   4                     0
   5                     0
   6      0.10571612818787
   7                     0
   8                     0
   9      0.21088669071582
  10                     0
  11                     0
  12      0.32777911562309
  13                     0
  14                     0
  15      0.79929205833399
  16                     0
  17                     0
  18                     0
  19    -0.0038609724960382
  20                     0
  21                     0
  22                     0
  23                     0
  24    -0.012441801032628
  25                     0
  26                     0
  27                     0
  28                     0
  29     0.076438755677232
  30                     0
  31                     0
  32                     0
  33                     0
  34    -0.0030772166426408
  35                     0
  36                     0
  37                     0
  38                     0
  39                     0
  40                     0
  41     0.017319827308632
  42                     0
  43                     0
  44                     0
  45                     0
  46                     0
  47                     0
  48    0.0022700491394154
  49                     0
  50                     0
  51                     0
  52                     0
  53                     0
  54                     0
  55                     0
  56                     0
  57                     0
  58                     0
  59                     0
  60                     0
  61     -0.10571612818787
  62                     0
  63                     0
  64     -0.21088669071582
  65                     0
  66                     0
  67     -0.32777911562309
  68                     0
  69                     0
  70     -0.79929205833399
  71                     0
  72                     0
  73                     0
  74    -0.0038609724960382
  75                     0
  76                     0
  77                     0
  78                     0
  79    -0.012441801032628
  80                     0
  81                     0
  82                     0
  83                     0
  84     0.076438755677232
  85                     0
  86                     0
  87                     0
  88                     0
  89    0.0030772166426408
  90                     0
  91                     0
  92                     0
  93                     0
  94                     0
  95                     0
  96    -0.017319827308632
  97                     0
  98                     0
  99                     0
 100                     0
 101                     0
 102                     0
 103    0.0022700491394154
 104                     0
 105                     0
 106                     0
 107                     0
 108                     0
 109                     0
 110                     0
 Sym= E1gy
 Ene=    0.1537219062
 Spin= Alpha
 Occup=    0.00000
   1                     0
   2                     0
   3                     0
   4                     0
   5                     0
   6                     0
   7      0.10571612818787
   8                     0
   9                     0
  10      0.21088669071582
  11                     0
  12                     0
  13      0.32777911562309
  14                     0
  15                     0
  16      0.79929205833399
  17                     0
  18                     0
  19                     0
  20    -0.0038609724960382
  21                     0
  22                     0
  23                     0
  24                     0
  25    -0.012441801032628
  26                     0
  27                     0
  28                     0
  29                     0
  30     0.076438755677232
  31                     0
  32                     0
  33                     0
  34                     0
  35    -0.0030772166426408
  36                     0
  37                     0
  38                     0
  39                     0
  40                     0
  41                     0
  42     0.017319827308632
  43                     0
  44                     0
  45                     0
  46                     0
  47                     0
  48                     0
  49    0.0022700491394154
  50                     0
  51                     0
  52                     0
  53                     0
  54                     0
  55                     0
  56                     0
  57                     0
  58                     0
  59                     0
  60                     0
  61                     0
  62     -0.10571612818787
  63                     0
  64                     0
  65     -0.21088669071582
  66                     0
  67                     0
  68     -0.32777911562309
  69                     0
  70                     0
  71     -0.79929205833399
  72                     0
  73                     0
  74                     0
  75    -0.0038609724960382
  76                     0
  77                     0