[Molden Format]
[Title]
 Molden file created by orca_2mkl for BaseName=n2

[Atoms] AU
N    1   7          0.0000000000         0.0000000000        -1.0374596475 
N    2   7          0.0000000000         0.0000000000         1.0374596475 
[GTO]
  1 0
s   8 1.0 
     9046.0000000000         0.4625014943
     1357.0000000000         0.8582537942
      309.3000000000         1.4398036033
       87.7300000000         2.1073802907
       28.5600000000         2.4528112129
       10.2100000000         1.8249171308
        3.8380000000         0.5434603116
        0.7466000000         0.0088335638
s   8 1.0 
     9046.0000000000        -0.2016221615
     1357.0000000000        -0.3837127393
      309.3000000000        -0.6278575813
       87.7300000000        -0.9995645316
       28.5600000000        -1.1840306625
       10.2100000000        -1.2827591972
        3.8380000000        -0.4746144262
        0.7466000000         0.6264625369
s   1 1.0 
        0.2248000000         0.2326790717
p   3 1.0 
       13.5500000000         2.1828372526
        2.9170000000         1.7413495278
        0.7973000000         0.8086982955
p   1 1.0 
        0.2185000000         0.2129385976
d   1 1.0 
        0.8170000000         2.0015142317

  2 0
s   8 1.0 
     9046.0000000000         0.4625014943
     1357.0000000000         0.8582537942
      309.3000000000         1.4398036033
       87.7300000000         2.1073802907
       28.5600000000         2.4528112129
       10.2100000000         1.8249171308
        3.8380000000         0.5434603116
        0.7466000000         0.0088335638
s   8 1.0 
     9046.0000000000        -0.2016221615
     1357.0000000000        -0.3837127393
      309.3000000000        -0.6278575813
       87.7300000000        -0.9995645316
       28.5600000000        -1.1840306625
       10.2100000000        -1.2827591972
        3.8380000000        -0.4746144262
        0.7466000000         0.6264625369
s   1 1.0 
        0.2248000000         0.2326790717
p   3 1.0 
       13.5500000000         2.1828372526
        2.9170000000         1.7413495278
        0.7973000000         0.8086982955
p   1 1.0 
        0.2185000000         0.2129385976
d   1 1.0 
        0.8170000000         2.0015142317

[5D]
[7F]
[9G]
[MO]
 Sym=     1a
 Ene= -1.56449058610371E+01
 Spin= Alpha
 Occup= 2.000000
  1       0.707383656220
  2       0.001769204312
  3      -0.002276144466
  4       0.000000000000
  5       0.000000000000
  6       0.004392128686
  7       0.000000000000
  8       0.000000000000
  9       0.000488105908
 10       0.000599755225
 11       0.000000000000
 12       0.000000000000
 13      -0.000000000000
 14       0.000000000000
 15       0.707383656220
 16       0.001769204312
 17      -0.002276144466
 18       0.000000000000
 19       0.000000000000
 20      -0.004392128686
 21       0.000000000000
 22       0.000000000000
 23      -0.000488105908
 24       0.000599755225
 25       0.000000000000
 26       0.000000000000
 27      -0.000000000000
 28       0.000000000000
 Sym=     1a
 Ene= -1.56421546108900E+01
 Spin= Alpha
 Occup= 2.000000
  1      -0.708496173496
  2      -0.002001852924
  3       0.004809175480
  4       0.000000000000
  5       0.000000000000
  6      -0.002477132194
  7       0.000000000000
  8       0.000000000000
  9       0.001449180441
 10      -0.001227738348
 11       0.000000000000
 12       0.000000000000
 13      -0.000000000000
 14       0.000000000000
 15       0.708496173496
 16       0.002001852924
 17      -0.004809175480
 18       0.000000000000
 19       0.000000000000
 20      -0.002477132194
 21       0.000000000000
 22       0.000000000000
 23       0.001449180441
 24       0.001227738348
 25       0.000000000000
 26       0.000000000000
 27       0.000000000000
 28       0.000000000000
 Sym=     1a
 Ene= -1.03995052337999E+00
 Spin= Alpha
 Occup= 2.000000
  1       0.016312052430
  2      -0.301214468356
  3      -0.374512685381
  4       0.000000000000
  5       0.000000000000
  6       0.160674170238
  7       0.000000000000
  8       0.000000000000
  9       0.125262098923
 10      -0.002609861189
 11       0.000000000000
 12       0.000000000000
 13       0.000000000000
 14       0.000000000000
 15       0.016312052430
 16      -0.301214468356
 17      -0.374512685381
 18       0.000000000000
 19       0.000000000000
 20      -0.160674170238
 21       0.000000000000
 22       0.000000000000
 23      -0.125262098923
 24      -0.002609861189
 25       0.000000000000
 26       0.000000000000
 27       0.000000000000
 28       0.000000000000
 Sym=     1a
 Ene= -7.58523735526424E-01
 Spin= Alpha
 Occup= 2.000000
  1      -0.001636211997
  2      -0.324209255307
  3      -0.431638526557
  4       0.000000000000
  5       0.000000000000
  6       0.209959956389
  7       0.000000000000
  8       0.000000000000
  9       0.113993229021
 10       0.014320471428
 11       0.000000000000
 12       0.000000000000
 13       0.000000000000
 14       0.000000000000
 15       0.001636211997
 16       0.324209255307
 17       0.431638526557
 18       0.000000000000
 19       0.000000000000
 20       0.209959956389
 21       0.000000000000
 22       0.000000000000
 23       0.113993229021
 24      -0.014320471428
 25       0.000000000000
 26       0.000000000000
 27      -0.000000000000
 28       0.000000000000
 Sym=     1a
 Ene= -5.85576851041608E-01
 Spin= Alpha
 Occup= 1.941708
  1       0.000000000000
  2      -0.000000000000
  3       0.000000000000
  4      -0.440314805522
  5       0.000000000000
  6      -0.000000000000
  7      -0.245376511643
  8       0.000000000000
  9      -0.000000000000
 10      -0.000000000000
 11      -0.043861056895
 12       0.000000000000
 13       0.000000000000
 14       0.000000000000
 15       0.000000000000
 16      -0.000000000000
 17       0.000000000000
 18      -0.440314805522
 19       0.000000000000
 20       0.000000000000
 21      -0.245376511643
 22       0.000000000000
 23       0.000000000000
 24      -0.000000000000
 25       0.043861056895
 26      -0.000000000000
 27       0.000000000000
 28       0.000000000000
 Sym=     1a
 Ene= -5.85576851041606E-01
 Spin= Alpha
 Occup= 1.941708
  1       0.000000000000
  2      -0.000000000000
  3       0.000000000000
  4       0.000000000000
  5      -0.440314805522
  6      -0.000000000000
  7       0.000000000000
  8      -0.245376511643
  9      -0.000000000000
 10      -0.000000000000
 11       0.000000000000
 12      -0.043861056895
 13       0.000000000000
 14       0.000000000000
 15       0.000000000000
 16      -0.000000000000
 17       0.000000000000
 18       0.000000000000
 19      -0.440314805522
 20       0.000000000000
 21       0.000000000000
 22      -0.245376511643
 23       0.000000000000
 24      -0.000000000000
 25      -0.000000000000
 26       0.043861056895
 27       0.000000000000
 28       0.000000000000
 Sym=     1a
 Ene= -1.01651068178511E+00
 Spin= Alpha
 Occup= 1.982237
  1      -0.000283052482
  2       0.169705662841
  3      -0.102919179699
  4       0.000000000000
  5       0.000000000000
  6       0.477993341801
  7       0.000000000000
  8       0.000000000000
  9       0.175260642868
 10       0.035453456292
 11       0.000000000000
 12       0.000000000000
 13      -0.000000000000
 14       0.000000000000
 15      -0.000283052482
 16       0.169705662841
 17      -0.102919179699
 18      -0.000000000000
 19      -0.000000000000
 20      -0.477993341801
 21      -0.000000000000
 22      -0.000000000000
 23      -0.175260642868
 24       0.035453456292
 25       0.000000000000
 26       0.000000000000
 27      -0.000000000000
 28       0.000000000000
 Sym=     1a
 Ene= 3.12622537259467E-01
 Spin= Alpha
 Occup= 0.058205
  1       0.000000000000
  2      -0.000000000000
  3       0.000000000000
  4      -0.000000000000
  5      -0.686371328137
  6      -0.000000000000
  7      -0.000000000000
  8      -0.219448041185
  9      -0.000000000000
 10      -0.000000000000
 11      -0.000000000000
 12      -0.031213356193
 13       0.000000000000
 14       0.000000000000
 15       0.000000000000
 16      -0.000000000000
 17       0.000000000000
 18       0.000000000000
 19       0.686371328137
 20       0.000000000000
 21       0.000000000000
 22       0.219448041185
 23       0.000000000000
 24      -0.000000000000
 25      -0.000000000000
 26      -0.031213356193
 27       0.000000000000
 28       0.000000000000
 Sym=     1a
 Ene= 3.12622537259465E-01
 Spin= Alpha
 Occup= 0.058205
  1       0.000000000000
  2      -0.000000000000
  3       0.000000000000
  4      -0.686371328137
  5      -0.000000000000
  6      -0.000000000000
  7      -0.219448041185
  8      -0.000000000000
  9      -0.000000000000
 10      -0.000000000000
 11      -0.031213356193
 12      -0.000000000000
 13       0.000000000000
 14       0.000000000000
 15       0.000000000000
 16      -0.000000000000
 17       0.000000000000
 18       0.686371328137
 19       0.000000000000
 20       0.000000000000
 21       0.219448041185
 22       0.000000000000
 23       0.000000000000
 24      -0.000000000000
 25      -0.031213356193
 26      -0.000000000000
 27       0.000000000000
 28       0.000000000000
 Sym=     1a
 Ene= 1.27378440477447E+00
 Spin= Alpha
 Occup= 0.017936
  1      -0.173789246299
  2      -0.577526574741
  3      -0.488033765228
  4       0.000000000000
  5      -0.000000000000
  6      -0.932552014379
  7       0.000000000000
  8      -0.000000000000
  9      -0.243024891637
 10      -0.049060438826
 11       0.000000000000
 12      -0.000000000000
 13      -0.000000000000
 14       0.000000000000
 15       0.173789246299
 16       0.577526574741
 17       0.488033765228
 18      -0.000000000000
 19       0.000000000000
 20      -0.932552014379
 21      -0.000000000000
 22       0.000000000000
 23      -0.243024891637
 24       0.049060438826
 25       0.000000000000
 26      -0.000000000000
 27       0.000000000000
 28       0.000000000000
 Sym=     1a
 Ene= 7.07365890027976E-01
 Spin= Alpha
 Occup= 0.000000
  1      -0.038566698826
  2       0.088593112179
  3       3.859382916195
  4       0.000000000000
  5       0.000000000000
  6      -0.293628648588
  7       0.000000000000
  8       0.000000000000
  9       2.706399880299
 10       0.140121160362
 11       0.000000000000
 12       0.000000000000
 13       0.000000000000
 14       0.000000000000
 15       0.038566698826
 16      -0.088593112179
 17      -3.859382916195
 18       0.000000000000
 19       0.000000000000
 20      -0.293628648588
 21       0.000000000000
 22       0.000000000000
 23       2.706399880299
 24      -0.140121160362
 25       0.000000000000
 26       0.000000000000
 27      -0.000000000000
 28       0.000000000000
 Sym=     1a
 Ene= 8.27755818271803E-01
 Spin= Alpha
 Occup= 0.000000
  1       0.162315730282
  2       0.312061197759
  3      -0.012147770124
  4       0.000000000000
  5       0.000000000000
  6       0.457716281616
  7       0.000000000000
  8       0.000000000000
  9      -0.944826521224
 10       0.070974629906
 11       0.000000000000
 12       0.000000000000
 13       0.000000000000
 14       0.000000000000
 15       0.162315730282
 16       0.312061197759
 17      -0.012147770124
 18       0.000000000000
 19       0.000000000000
 20      -0.457716281616
 21       0.000000000000
 22       0.000000000000
 23       0.944826521224
 24       0.070974629906
 25       0.000000000000
 26       0.000000000000
 27       0.000000000000
 28       0.000000000000
 Sym=     1a
 Ene= 8.78723391374256E-01
 Spin= Alpha
 Occup= 0.000000
  1       0.000000000000
  2       0.000000000000
  3       0.000000000000
  4       0.000000000000
  5      -0.634842012652
  6       0.000000000000
  7       0.000000000000
  8       0.624366666657
  9       0.000000000000
 10       0.000000000000
 11       0.000000000000
 12      -0.102404009475
 13       0.000000000000
 14       0.000000000000
 15       0.000000000000
 16       0.000000000000
 17       0.000000000000
 18       0.000000000000
 19      -0.634842012652
 20       0.000000000000
 21       0.000000000000
 22       0.624366666657
 23       0.000000000000
 24       0.000000000000
 25       0.000000000000
 26       0.102404009475
 27       0.000000000000
 28       0.000000000000
 Sym=     1a
 Ene= 8.78723391374252E-01
 Spin= Alpha
 Occup= 0.000000
  1       0.000000000000
  2       0.000000000000
  3       0.000000000000
  4      -0.634842012652
  5       0.000000000000
  6       0.000000000000
  7       0.624366666657
  8       0.000000000000
  9       0.000000000000
 10       0.000000000000
 11      -0.102404009475
 12       0.000000000000
 13       0.000000000000
 14       0.000000000000
 15       0.000000000000
 16       0.000000000000
 17       0.000000000000
 18      -0.634842012652
 19       0.000000000000
 20       0.000000000000
 21       0.624366666657
 22       0.000000000000
 23       0.000000000000
 24       0.000000000000
 25       0.102404009475
 26       0.000000000000
 27       0.000000000000
 28       0.000000000000
 Sym=     1a
 Ene= 9.31721040080917E-01
 Spin= Alpha
 Occup= 0.000000
  1       0.000000000000
  2       0.000000000000
  3       0.000000000000
  4       0.000000000000
  5      -0.518892490482
  6       0.000000000000
  7       0.000000000000
  8       1.323256380154
  9       0.000000000000
 10       0.000000000000
 11       0.000000000000
 12       0.049492134401
 13       0.000000000000
 14       0.000000000000
 15       0.000000000000
 16       0.000000000000
 17       0.000000000000
 18       0.000000000000
 19       0.518892490482
 20       0.000000000000
 21       0.000000000000
 22      -1.323256380154
 23       0.000000000000
 24       0.000000000000
 25       0.000000000000
 26       0.049492134401
 27       0.000000000000
 28       0.000000000000
 Sym=     1a
 Ene= 9.31721040080924E-01
 Spin= Alpha
 Occup= 0.000000
  1       0.000000000000
  2       0.000000000000
  3       0.000000000000
  4      -0.518892490482
  5       0.000000000000
  6       0.000000000000
  7       1.323256380154
  8       0.000000000000
  9       0.000000000000
 10       0.000000000000
 11       0.049492134401
 12       0.000000000000
 13       0.000000000000
 14       0.000000000000
 15       0.000000000000
 16       0.000000000000
 17       0.000000000000
 18       0.518892490482
 19       0.000000000000
 20       0.000000000000
 21      -1.323256380154
 22       0.000000000000
 23       0.000000000000
 24       0.000000000000
 25       0.049492134401
 26       0.000000000000
 27       0.000000000000
 28       0.000000000000
 Sym=     1a
 Ene= 1.00500408396294E+00
 Spin= Alpha
 Occup= 0.000000
  1       0.425834404976
  2       1.037569716389
  3      -0.931893451333
  4       0.000000000000
  5       0.000000000000
  6      -0.274665017733
  7       0.000000000000
  8       0.000000000000
  9       0.188974982855
 10       0.061915927227
 11       0.000000000000
 12       0.000000000000
 13       0.000000000000
 14       0.000000000000
 15       0.425834404976
 16       1.037569716389
 17      -0.931893451333
 18       0.000000000000
 19       0.000000000000
 20       0.274665017733
 21       0.000000000000
 22       0.000000000000
 23      -0.188974982855
 24       0.061915927227
 25       0.000000000000
 26       0.000000000000
 27       0.000000000000
 28       0.000000000000
 Sym=     1a
 Ene= 1.55693939695611E+00
 Spin= Alpha
 Occup= 0.000000
  1      -0.653351056297
  2      -1.394634798633
  3       6.016439164030
  4       0.000000000000
  5       0.000000000000
  6       0.175229295035
  7       0.000000000000
  8       0.000000000000
  9       2.572691703295
 10       0.068255644347
 11       0.000000000000
 12       0.000000000000
 13       0.000000000000
 14       0.000000000000
 15       0.653351056297
 16       1.394634798633
 17      -6.016439164030
 18       0.000000000000
 19       0.000000000000
 20       0.175229295035
 21       0.000000000000
 22       0.000000000000
 23       2.572691703295
 24      -0.068255644347
 25       0.000000000000
 26       0.000000000000
 27      -0.000000000000
 28       0.000000000000
 Sym=     1a
 Ene= 1.76897117072112E+00
 Spin= Alpha
 Occup= 0.000000
  1       0.000000000000
  2       0.000000000000
  3       0.000000000000
  4       0.000000000000
  5       0.000000000000
  6       0.000000000000
  7       0.000000000000
  8       0.000000000000
  9       0.000000000000
 10       0.000000000000
 11       0.000000000000
 12       0.000000000000
 13       0.000000000000
 14       0.653088105963
 15       0.000000000000
 16       0.000000000000
 17       0.000000000000
 18       0.000000000000
 19       0.000000000000
 20       0.000000000000
 21       0.000000000000
 22       0.000000000000
 23       0.000000000000
 24       0.000000000000
 25       0.000000000000
 26       0.000000000000
 27       0.000000000000
 28       0.653088105963
 Sym=     1a
 Ene= 1.76897117072112E+00
 Spin= Alpha
 Occup= 0.000000
  1       0.000000000000
  2       0.000000000000
  3      -0.000000000000
  4       0.000000000000
  5       0.000000000000
  6       0.000000000000
  7       0.000000000000
  8       0.000000000000
  9      -0.000000000000
 10       0.000000000000
 11       0.000000000000
 12       0.000000000000
 13      -0.653088105963
 14       0.000000000000
 15       0.000000000000
 16       0.000000000000
 17      -0.000000000000
 18       0.000000000000
 19       0.000000000000
 20      -0.000000000000
 21       0.000000000000
 22       0.000000000000
 23       0.000000000000
 24       0.000000000000
 25       0.000000000000
 26       0.000000000000
 27      -0.653088105963
 28       0.000000000000
 Sym=     1a
 Ene= 1.89447591291943E+00
 Spin= Alpha
 Occup= 0.000000
  1       0.000000000000
  2       0.000000000000
  3       0.000000000000
  4       0.285113121566
  5       0.000000000000
  6       0.000000000000
  7      -0.071082756705
  8       0.000000000000
  9       0.000000000000
 10       0.000000000000
 11      -0.595822180410
 12       0.000000000000
 13       0.000000000000
 14       0.000000000000
 15       0.000000000000
 16       0.000000000000
 17       0.000000000000
 18       0.285113121566
 19       0.000000000000
 20       0.000000000000
 21      -0.071082756705
 22       0.000000000000
 23       0.000000000000
 24       0.000000000000
 25       0.595822180410
 26       0.000000000000
 27       0.000000000000
 28       0.000000000000
 Sym=     1a
 Ene= 1.89447591291943E+00
 Spin= Alpha
 Occup= 0.000000
  1       0.000000000000
  2       0.000000000000
  3       0.000000000000
  4       0.000000000000
  5       0.285113121566
  6       0.000000000000
  7       0.000000000000
  8      -0.071082756705
  9       0.000000000000
 10       0.000000000000
 11       0.000000000000
 12      -0.595822180410
 13       0.000000000000
 14       0.000000000000
 15       0.000000000000
 16       0.000000000000
 17       0.000000000000
 18       0.000000000000
 19       0.285113121566
 20       0.000000000000
 21       0.000000000000
 22      -0.071082756705
 23       0.000000000000
 24       0.000000000000
 25       0.000000000000
 26       0.595822180410
 27       0.000000000000
 28       0.000000000000
 Sym=     1a
 Ene= 2.30886256692502E+00
 Spin= Alpha
 Occup= 0.000000
  1       0.000000000000
  2       0.000000000000
  3       0.000000000000
  4       0.000000000000
  5       0.000000000000
  6       0.000000000000
  7       0.000000000000
  8       0.000000000000
  9       0.000000000000
 10       0.000000000000
 11       0.000000000000
 12       0.000000000000
 13       0.000000000000
 14       0.777212555181
 15       0.000000000000
 16       0.000000000000
 17       0.000000000000
 18       0.000000000000
 19       0.000000000000
 20       0.000000000000
 21       0.000000000000
 22       0.000000000000
 23       0.000000000000
 24       0.000000000000
 25       0.000000000000
 26       0.000000000000
 27       0.000000000000
 28      -0.777212555181
 Sym=     1a
 Ene= 2.30886256692503E+00
 Spin= Alpha
 Occup= 0.000000
  1      -0.000000000000
  2      -0.000000000000
  3       0.000000000000
  4       0.000000000000
  5       0.000000000000
  6      -0.000000000000
  7       0.000000000000
  8       0.000000000000
  9       0.000000000000
 10      -0.000000000000
 11       0.000000000000
 12       0.000000000000
 13      -0.777212555181
 14       0.000000000000
 15       0.000000000000
 16       0.000000000000
 17      -0.000000000000
 18       0.000000000000
 19       0.000000000000
 20      -0.000000000000
 21       0.000000000000
 22       0.000000000000
 23       0.000000000000
 24       0.000000000000
 25       0.000000000000
 26       0.000000000000
 27       0.777212555181
 28       0.000000000000
 Sym=     1a
 Ene= 2.88667706857542E+00
 Spin= Alpha
 Occup= 0.000000
  1       0.386281012944
  2       0.726119384673
  3      -0.327780933241
  4       0.000000000000
  5       0.000000000000
  6       0.364280457325
  7       0.000000000000
  8       0.000000000000
  9      -0.549713562826
 10      -0.835398649840
 11       0.000000000000
 12       0.000000000000
 13      -0.000000000000
 14       0.000000000000
 15       0.386281012944
 16       0.726119384673
 17      -0.327780933241
 18       0.000000000000
 19       0.000000000000
 20      -0.364280457325
 21       0.000000000000
 22       0.000000000000
 23       0.549713562826
 24      -0.835398649840
 25       0.000000000000
 26       0.000000000000
 27      -0.000000000000
 28       0.000000000000
 Sym=     1a
 Ene= 2.99803308211133E+00
 Spin= Alpha
 Occup= 0.000000
  1       0.000000000000
  2       0.000000000000
  3       0.000000000000
  4       0.000000000000
  5      -0.196118494499
  6       0.000000000000
  7       0.000000000000
  8      -0.461667941316
  9       0.000000000000
 10       0.000000000000
 11       0.000000000000
 12      -1.104014710104
 13       0.000000000000
 14       0.000000000000
 15       0.000000000000
 16       0.000000000000
 17       0.000000000000
 18       0.000000000000
 19       0.196118494499
 20       0.000000000000
 21       0.000000000000
 22       0.461667941316
 23       0.000000000000
 24       0.000000000000
 25       0.000000000000
 26      -1.104014710104
 27       0.000000000000
 28       0.000000000000
 Sym=     1a
 Ene= 2.99803308211133E+00
 Spin= Alpha
 Occup= 0.000000
  1       0.000000000000
  2       0.000000000000
  3       0.000000000000
  4      -0.196118494499
  5       0.000000000000
  6       0.000000000000
  7      -0.461667941316
  8       0.000000000000
  9       0.000000000000
 10       0.000000000000
 11      -1.104014710104
 12       0.000000000000
 13       0.000000000000
 14       0.000000000000
 15       0.000000000000
 16       0.000000000000
 17       0.000000000000
 18       0.196118494499
 19       0.000000000000
 20       0.000000000000
 21       0.461667941316
 22       0.000000000000
 23       0.000000000000
 24       0.000000000000
 25      -1.104014710104
 26       0.000000000000
 27       0.000000000000
 28       0.000000000000
 Sym=     1a
 Ene= 3.17167282790304E+00
 Spin= Alpha
 Occup= 0.000000
  1       0.120962009646
  2       0.309734504426
  3       3.470057354551
  4       0.000000000000
  5       0.000000000000
  6       0.869699603528
  7       0.000000000000
  8       0.000000000000
  9       1.762720565480
 10       1.231308845456
 11       0.000000000000
 12       0.000000000000
 13      -0.000000000000
 14       0.000000000000
 15      -0.120962009646
 16      -0.309734504426
 17      -3.470057354551
 18       0.000000000000
 19       0.000000000000
 20       0.869699603528
 21       0.000000000000
 22       0.000000000000
 23       1.762720565480
 24      -1.231308845456
 25       0.000000000000
 26       0.000000000000
 27       0.000000000000
 28       0.000000000000
