[Molden Format]
made by pyscf v[2.12.1]
[Atoms] (AU)
C   1   6     0.00000000000000     2.63805766989283     0.00000000000000
C   2   6     2.28467888459916     1.31902883494641     0.00000000000000
C   3   6     2.28467888459916    -1.31902883494641     0.00000000000000
C   4   6     0.00000000000000    -2.63805766989283     0.00000000000000
C   5   6    -2.28467888459916    -1.31902883494641     0.00000000000000
C   6   6    -2.28467888459916     1.31902883494641     0.00000000000000
H   7   1     0.00000000000000     4.68463106279679     0.00000000000000
H   8   1     4.05724198944119     2.34326039446068     0.00000000000000
H   9   1     4.05724198944119    -2.34326039446068     0.00000000000000
H   10   1     0.00000000000000    -4.68463106279679     0.00000000000000
H   11   1    -4.05724198944119    -2.34326039446068     0.00000000000000
H   12   1    -4.05724198944119     2.34326039446068     0.00000000000000
[GTO]
1 0
 s    3 1.00
             71.616837    0.15432897000916
             13.045096    0.53532814003178
             3.5305122     0.4446345400264
 s    3 1.00
             2.9412494  -0.099967230075964
             0.6834831    0.39951283030359
             0.2222899    0.70011547053201
 p    3 1.00
             2.9412494    0.15591627210511
             0.6834831    0.60768372820466
             0.2222899    0.39195739529202

2 0
 s    3 1.00
             71.616837    0.15432897000916
             13.045096    0.53532814003178
             3.5305122     0.4446345400264
 s    3 1.00
             2.9412494  -0.099967230075964
             0.6834831    0.39951283030359
             0.2222899    0.70011547053201
 p    3 1.00
             2.9412494    0.15591627210511
             0.6834831    0.60768372820466
             0.2222899    0.39195739529202

3 0
 s    3 1.00
             71.616837    0.15432897000916
             13.045096    0.53532814003178
             3.5305122     0.4446345400264
 s    3 1.00
             2.9412494  -0.099967230075964
             0.6834831    0.39951283030359
             0.2222899    0.70011547053201
 p    3 1.00
             2.9412494    0.15591627210511
             0.6834831    0.60768372820466
             0.2222899    0.39195739529202

4 0
 s    3 1.00
             71.616837    0.15432897000916
             13.045096    0.53532814003178
             3.5305122     0.4446345400264
 s    3 1.00
             2.9412494  -0.099967230075964
             0.6834831    0.39951283030359
             0.2222899    0.70011547053201
 p    3 1.00
             2.9412494    0.15591627210511
             0.6834831    0.60768372820466
             0.2222899    0.39195739529202

5 0
 s    3 1.00
             71.616837    0.15432897000916
             13.045096    0.53532814003178
             3.5305122     0.4446345400264
 s    3 1.00
             2.9412494  -0.099967230075964
             0.6834831    0.39951283030359
             0.2222899    0.70011547053201
 p    3 1.00
             2.9412494    0.15591627210511
             0.6834831    0.60768372820466
             0.2222899    0.39195739529202

6 0
 s    3 1.00
             71.616837    0.15432897000916
             13.045096    0.53532814003178
             3.5305122     0.4446345400264
 s    3 1.00
             2.9412494  -0.099967230075964
             0.6834831    0.39951283030359
             0.2222899    0.70011547053201
 p    3 1.00
             2.9412494    0.15591627210511
             0.6834831    0.60768372820466
             0.2222899    0.39195739529202

7 0
 s    3 1.00
            3.42525091    0.15432897070298
            0.62391373    0.53532814243847
             0.1688554    0.44463454202535

8 0
 s    3 1.00
            3.42525091    0.15432897070298
            0.62391373    0.53532814243847
             0.1688554    0.44463454202535

9 0
 s    3 1.00
            3.42525091    0.15432897070298
            0.62391373    0.53532814243847
             0.1688554    0.44463454202535

10 0
 s    3 1.00
            3.42525091    0.15432897070298
            0.62391373    0.53532814243847
             0.1688554    0.44463454202535

11 0
 s    3 1.00
            3.42525091    0.15432897070298
            0.62391373    0.53532814243847
             0.1688554    0.44463454202535

12 0
 s    3 1.00
            3.42525091    0.15432897070298
            0.62391373    0.53532814243847
             0.1688554    0.44463454202535

[5d]
[7f]
[9g]

[MO]
 Sym= B2u
 Ene=     -11.0290864
 Spin= Alpha
 Occup=    2.00000
   1                     0
   2                     0
   3    -0.003773298322099
   4    -2.3104788561933e-19
   5                     0
   6      0.49626067492734
   7     0.014563119495388
   8    -0.00053341713436867
   9     0.001871135506342
  10                     0
  11      0.49626067492734
  12     0.014563119495388
  13    -0.00053341713436867
  14    -0.001871135506342
  15                     0
  16                     0
  17                     0
  18    -0.003773298322099
  19    -2.3104788561933e-19
  20                     0
  21     -0.49626067492734
  22    -0.014563119495388
  23    -0.00053341713436867
  24     0.001871135506342
  25                     0
  26     -0.49626067492734
  27    -0.014563119495388
  28    -0.00053341713436867
  29    -0.001871135506342
  30                     0
  31                     0
  32    -0.0033010027783123
  33    -0.0033010027783123
  34                     0
  35    0.0033010027783123
  36    0.0033010027783123
 Sym= B3u
 Ene=    -11.02907219
 Spin= Alpha
 Occup=    2.00000
   1      0.56445530570655
   2     0.016377192379181
   3    -3.6722541646693e-20
   4    0.00059972461728983
   5                     0
   6      0.29490579423276
   7    0.0088432268397703
   8    0.0018258498763333
   9    -0.0027178713060929
  10                     0
  11     -0.29490579423276
  12    -0.0088432268397703
  13    -0.0018258498763333
  14    -0.0027178713060929
  15                     0
  16     -0.56445530570655
  17    -0.016377192379181
  18    -3.6722541646693e-20
  19    0.00059972461728983
  20                     0
  21     -0.29490579423276
  22    -0.0088432268397703
  23    0.0018258498763333
  24    -0.0027178713060929
  25                     0
  26      0.29490579423276
  27    0.0088432268397703
  28    -0.0018258498763333
  29    -0.0027178713060929
  30                     0
  31    -0.0037518718390807
  32    -0.001966240030538
  33     0.001966240030538
  34    0.0037518718390807
  35     0.001966240030538
  36    -0.001966240030538
 Sym= Ag
 Ene=    -11.02905294
 Spin= Alpha
 Occup=    2.00000
   1      0.38765439221024
   2    0.0084336977081075
   3    -9.8263497824137e-20
   4    0.0016047647026482
   5                     0
   6      0.41400946694231
   7    0.0095801690364003
   8    0.0012599664199893
   9    0.00084780015214491
  10                     0
  11      0.41400946694231
  12    0.0095801690364003
  13    0.0012599664199893
  14    -0.00084780015214491
  15                     0
  16      0.38765439221024
  17    0.0084336977081075
  18    9.8263497824137e-20
  19    -0.0016047647026482
  20                     0
  21      0.41400946694231
  22    0.0095801690364003
  23    -0.0012599664199893
  24    -0.00084780015214491
  25                     0
  26      0.41400946694231
  27    0.0095801690364003
  28    -0.0012599664199893
  29    0.00084780015214491
  30                     0
  31    -0.0026949453024824
  32    -0.0028769625673244
  33    -0.0028769625673244
  34    -0.0026949453024824
  35    -0.0028769625673244
  36    -0.0028769625673244
 Sym= B1g
 Ene=    -11.02873505
 Spin= Alpha
 Occup=    2.00000
   1                     0
   2                     0
   3    -0.0039039463724936
   4    -2.3904777145586e-19
   5                     0
   6      0.49589420999476
   7     0.021589685339821
   8    -0.00045771814243366
   9    -0.0025173106142339
  10                     0
  11     -0.49589420999476
  12    -0.021589685339821
  13    0.00045771814243366
  14    -0.0025173106142339
  15                     0
  16                     0
  17                     0
  18    0.0039039463724936
  19    2.3904777145586e-19
  20                     0
  21      0.49589420999476
  22     0.021589685339821
  23    0.00045771814243366
  24    0.0025173106142339
  25                     0
  26     -0.49589420999476
  27    -0.021589685339821
  28    -0.00045771814243366
  29    0.0025173106142339
  30                     0
  31                     0
  32    -0.0034502985381283
  33    0.0034502985381283
  34                     0
  35    -0.0034502985381283
  36    0.0034502985381283
 Sym= Ag
 Ene=    -11.02872039
 Spin= Alpha
 Occup=    2.00000
   1      0.58477925455131
   2     0.025202412858417
   3    1.1394951600001e-19
   4    -0.001860936819977
   5                     0
   6     -0.27373002133863
   7    -0.012176617779425
   8    0.0025579459022575
   9    -0.002425557686311
  10                     0
  11     -0.27373002133863
  12    -0.012176617779425
  13    0.0025579459022575
  14     0.002425557686311
  15                     0
  16      0.58477925455131
  17     0.025202412858417
  18    -1.1394951600001e-19
  19     0.001860936819977
  20                     0
  21     -0.27373002133863
  22    -0.012176617779425
  23    -0.0025579459022575
  24     0.002425557686311
  25                     0
  26     -0.27373002133863
  27    -0.012176617779425
  28    -0.0025579459022575
  29    -0.002425557686311
  30                     0
  31    -0.0040707836655908
  32     0.001904723272287
  33     0.001904723272287
  34    -0.0040707836655908
  35     0.001904723272287
  36     0.001904723272287
 Sym= B3u
 Ene=    -11.02858524
 Spin= Alpha
 Occup=    2.00000
   1     -0.41661678095749
   2    -0.021269334439593
   3    -1.4871731018183e-19
   4    0.0024287379885428
   5                     0
   6      0.39866725951102
   7     0.020740856067499
   8    -0.002153734197403
   9    -0.0011639265095101
  10                     0
  11     -0.39866725951102
  12    -0.020740856067499
  13     0.002153734197403
  14    -0.0011639265095101
  15                     0
  16      0.41661678095749
  17     0.021269334439593
  18    -1.4871731018183e-19
  19    0.0024287379885428
  20                     0
  21     -0.39866725951102
  22    -0.020740856067499
  23    -0.002153734197403
  24    -0.0011639265095101
  25                     0
  26      0.39866725951102
  27     0.020740856067499
  28     0.002153734197403
  29    -0.0011639265095101
  30                     0
  31    0.0029927452766443
  32    -0.0028717307668225
  33    0.0028717307668225
  34    -0.0029927452766443
  35    0.0028717307668225
  36    -0.0028717307668225
 Sym= Ag
 Ene=    -1.089158574
 Spin= Alpha
 Occup=    2.00000
   1     -0.10468320228064
   2       0.2650361771242
   3    3.7670209550759e-18
   4    -0.061520120865848
   5                     0
   6     -0.10467217860745
   7      0.26501880529528
   8    -0.053303064370386
   9    -0.030764697903151
  10                     0
  11     -0.10467217860745
  12      0.26501880529528
  13    -0.053303064370386
  14     0.030764697903151
  15                     0
  16     -0.10468320228064
  17       0.2650361771242
  18    -3.7670209550759e-18
  19     0.061520120865848
  20                     0
  21     -0.10467217860745
  22      0.26501880529528
  23     0.053303064370386
  24     0.030764697903151
  25                     0
  26     -0.10467217860745
  27      0.26501880529528
  28     0.053303064370386
  29    -0.030764697903151
  30                     0
  31     0.047344501065481
  32     0.047309647609458
  33     0.047309647609458
  34     0.047344501065481
  35     0.047309647609458
  36     0.047309647609458
 Sym= B3u
 Ene=   -0.9544203999
 Spin= Alpha
 Occup=    2.00000
   1     -0.14640582631306
   2      0.39517180725319
   3    1.6523705674832e-18
   4    -0.026985259237744
   5                     0
   6    -0.073194354654874
   7      0.19757190790881
   8    -0.068029576219813
   9     0.090800195608306
  10                     0
  11     0.073194354654874
  12     -0.19757190790881
  13     0.068029576219813
  14     0.090800195608306
  15                     0
  16      0.14640582631306
  17     -0.39517180725319
  18    1.6523705674832e-18
  19    -0.026985259237744
  20                     0
  21     0.073194354654874
  22     -0.19757190790881
  23    -0.068029576219813
  24     0.090800195608306
  25                     0
  26    -0.073194354654874
  27      0.19757190790881
  28     0.068029576219813
  29     0.090800195608306
  30                     0
  31      0.10931523244644
  32     0.054628801624065
  33    -0.054628801624065
  34     -0.10931523244644
  35    -0.054628801624065
  36     0.054628801624065
 Sym= B2u
 Ene=   -0.9543826571
 Spin= Alpha
 Occup=    2.00000
   1                     0
   2                     0
   3       0.1300996734521
   4    7.9663074331617e-18
   5                     0
   6     -0.12679208924754
   7       0.3422518274816
   8     0.012224223508526
   9    -0.068031567658341
  10                     0
  11     -0.12679208924754
  12       0.3422518274816
  13     0.012224223508526
  14     0.068031567658341
  15                     0
  16                     0
  17                     0
  18       0.1300996734521
  19    7.9663074331617e-18
  20                     0
  21      0.12679208924754
  22      -0.3422518274816
  23     0.012224223508526
  24    -0.068031567658341
  25                     0
  26      0.12679208924754
  27      -0.3422518274816
  28     0.012224223508526
  29     0.068031567658341
  30                     0
  31                     0
  32     0.094613157955321
  33     0.094613157955321
  34                     0
  35    -0.094613157955321
  36    -0.094613157955321
 Sym= B1g
 Ene=   -0.7669669848
 Spin= Alpha
 Occup=    2.00000
   1                     0
   2                     0
   3      0.23011870296648
   4    1.4090706650592e-17
   5                     0
   6    -0.098999856941592
   7      0.29165279272042
   8    0.0060224723717334
   9      0.13635626340606
  10                     0
  11     0.098999856941592
  12     -0.29165279272042
  13    -0.0060224723717334
  14      0.13635626340606
  15                     0
  16                     0
  17                     0
  18     -0.23011870296648
  19    -1.4090706650592e-17
  20                     0
  21    -0.098999856941592
  22      0.29165279272042
  23    -0.0060224723717334
  24     -0.13635626340606
  25                     0
  26     0.098999856941592
  27     -0.29165279272042
  28    0.0060224723717334
  29     -0.13635626340606
  30                     0
  31                     0
  32      0.15481054262953
  33     -0.15481054262953
  34                     0
  35      0.15481054262953
  36     -0.15481054262953
 Sym= Ag
 Ene=   -0.7669645392
 Spin= Alpha
 Occup=    2.00000
   1     -0.11432132797668
   2      0.33678190475778
   3    -5.2006965358024e-18
   4     0.084933819929523
   5                     0
   6     0.057166763406017
   7     -0.16841292481214
   8     -0.13621814779384
   9      0.15143919016523
  10                     0
  11     0.057166763406017
  12     -0.16841292481214
  13     -0.13621814779384
  14     -0.15143919016523
  15                     0
  16     -0.11432132797668
  17      0.33678190475778
  18    5.2006965358024e-18
  19    -0.084933819929523
  20                     0
  21     0.057166763406017
  22     -0.16841292481214
  23      0.13621814779384
  24     -0.15143919016523
  25                     0
  26     0.057166763406017
  27     -0.16841292481214
  28      0.13621814779384
  29      0.15143919016523
  30                     0
  31      0.17890767518578
  32     -0.08927937047404
  33     -0.08927937047404
  34      0.17890767518578
  35     -0.08927937047404
  36     -0.08927937047404
 Sym= Ag
 Ene=   -0.6620831027
 Spin= Alpha
 Occup=    2.00000
   1    -0.0086726675325492
   2     0.035344942706837
   3    -1.4354925979595e-17
   4      0.23443373207016
   5                     0
   6    -0.0087892533857398
   7     0.035736788177233
   8      0.20313328690338
   9      0.11710651525178
  10                     0
  11    -0.0087892533857398
  12     0.035736788177233
  13      0.20313328690338
  14     -0.11710651525178
  15                     0
  16    -0.0086726675325492
  17     0.035344942706837
  18    1.4354925979595e-17
  19     -0.23443373207016
  20                     0
  21    -0.0087892533857398
  22     0.035736788177233
  23     -0.20313328690338
  24     -0.11710651525178
  25                     0
  26    -0.0087892533857398
  27     0.035736788177233
  28     -0.20313328690338
  29      0.11710651525178
  30                     0
  31      0.17552328325198
  32      0.17568547474827
  33      0.17568547474827
  34      0.17552328325198
  35      0.17568547474827
  36      0.17568547474827
 Sym= B3u
 Ene=   -0.5953065461
 Spin= Alpha
 Occup=    2.00000
   1     0.065329205366446
   2     -0.21890331074239
   3    1.0052258487042e-17
   4     -0.16416583939207
   5                     0
   6    -0.065368714934802
   7      0.21904095702173
   8      0.14170148996435
   9     0.081946073330506
  10                     0
  11     0.065368714934802
  12     -0.21904095702173
  13     -0.14170148996435
  14     0.081946073330506
  15                     0
  16    -0.065329205366446
  17      0.21890331074239
  18    1.0052258487042e-17
  19     -0.16416583939207
  20                     0
  21     0.065368714934802
  22     -0.21904095702173
  23      0.14170148996435
  24     0.081946073330506
  25                     0
  26    -0.065368714934802
  27      0.21904095702173
  28     -0.14170148996435
  29     0.081946073330506
  30                     0
  31     -0.23192280479069
  32      0.23156460999463
  33     -0.23156460999463
  34      0.23192280479069
  35     -0.23156460999463
  36      0.23156460999463
 Sym= B2u
 Ene=   -0.5527252568
 Spin= Alpha
 Occup=    2.00000
   1                     0
   2                     0
   3     -0.33184811857353
   4    -2.0319836810707e-17
   5                     0
   6    -7.1541625690005e-05
   7    0.00022802128389654
   8       0.1654350963992
   9     -0.28814281211649
  10                     0
  11    -7.1541625690005e-05
  12    0.00022802128389654
  13       0.1654350963992
  14      0.28814281211649
  15                     0
  16                     0
  17                     0
  18     -0.33184811857353
  19    -2.0319836810707e-17
  20                     0
  21    7.1541625690005e-05
  22    -0.00022802128389654
  23       0.1654350963992
  24     -0.28814281211649
  25                     0
  26    7.1541625690005e-05
  27    -0.00022802128389654
  28       0.1654350963992
  29      0.28814281211649
  30                     0
  31                     0
  32    -0.00064698618924401
  33    -0.00064698618924401
  34                     0
  35    0.00064698618924401
  36    0.00064698618924401
 Sym= B3u
 Ene=   -0.5341839794
 Spin= Alpha
 Occup=    2.00000
   1    -0.026840109163048
   2     0.085238439977655
   3    2.2583428041713e-17
   4     -0.36881536876487
   5                     0
   6    -0.013339061673572
   7     0.042328414174293
   8     -0.20413757149611
   9    -0.015657673040645
  10                     0
  11     0.013339061673572
  12    -0.042328414174293
  13      0.20413757149611
  14    -0.015657673040645
  15                     0
  16     0.026840109163048
  17    -0.085238439977655
  18    2.2583428041713e-17
  19     -0.36881536876487
  20                     0
  21     0.013339061673572
  22    -0.042328414174293
  23     -0.20413757149611
  24    -0.015657673040645
  25                     0
  26    -0.013339061673572
  27     0.042328414174293
  28      0.20413757149611
  29    -0.015657673040645
  30                     0
  31     -0.28268113029152
  32     -0.14166082616676
  33      0.14166082616676
  34      0.28268113029152
  35      0.14166082616676
  36     -0.14166082616676
 Sym= B2u
 Ene=   -0.5341461424
 Spin= Alpha
 Occup=    2.00000
   1                     0
   2                     0
   3     -0.10308536781263
   4    -6.3121582865332e-18
   5                     0
   6     0.023173116414346
   7    -0.073539123313441
   8      0.25158641970823
   9      0.20325287655307
  10                     0
  11     0.023173116414346
  12    -0.073539123313441
  13      0.25158641970823
  14     -0.20325287655307
  15                     0
  16                     0
  17                     0
  18     -0.10308536781263
  19    -6.3121582865332e-18
  20                     0
  21    -0.023173116414346
  22     0.073539123313441
  23      0.25158641970823
  24      0.20325287655307
  25                     0
  26    -0.023173116414346
  27     0.073539123313441
  28      0.25158641970823
  29     -0.20325287655307
  30                     0
  31                     0
  32      0.24502711694998
  33      0.24502711694998
  34                     0
  35     -0.24502711694998
  36     -0.24502711694998
 Sym= B1u
 Ene=    -0.455470885
 Spin= Alpha
 Occup=    2.00000
   1                     0
   2                     0
   3                     0
   4                     0
   5      0.33440992473989
   6                     0
   7                     0
   8                     0
   9                     0
  10      0.33440587008581
  11                     0
  12                     0
  13                     0
  14                     0
  15      0.33440587008581
  16                     0
  17                     0
  18                     0
  19                     0
  20      0.33440992473989
  21                     0
  22                     0
  23                     0
  24                     0
  25      0.33440587008581
  26                     0
  27                     0
  28                     0
  29                     0
  30      0.33440587008581
  31                     0
  32                     0
  33                     0
  34                     0
  35                     0
  36                     0
 Sym= Ag
 Ene=   -0.4331286668
 Spin= Alpha
 Occup=    2.00000
   1    0.0080506724413227
   2    -0.018318162190304
   3    -1.7254340092948e-17
   4      0.28178475793937
   5                     0
   6    -0.0040280423505563
   7    0.0091488450456162
   8     0.022716146735208
   9     -0.32112044864844
  10                     0
  11    -0.0040280423505563
  12    0.0091488450456162
  13     0.022716146735208
  14      0.32112044864844
  15                     0
  16    0.0080506724413227
  17    -0.018318162190304
  18    1.7254340092948e-17
  19     -0.28178475793937
  20                     0
  21    -0.0040280423505563
  22    0.0091488450456162
  23    -0.022716146735208
  24      0.32112044864844
  25                     0
  26    -0.0040280423505563
  27    0.0091488450456162
  28    -0.022716146735208
  29     -0.32112044864844
  30                     0
  31      0.29733142885724
  32      -0.1487164392061
  33      -0.1487164392061
  34      0.29733142885724
  35      -0.1487164392061
  36      -0.1487164392061
 Sym= B1g
 Ene=   -0.4330209704
 Spin= Alpha
 Occup=    2.00000
   1                     0
   2                     0
   3     -0.33423291279921
   4    -2.0465863341462e-17
   5                     0
   6    0.0069724759640453
   7    -0.015848288619289
   8      0.29490827452447
   9    -0.022662273776941
  10                     0
  11    -0.0069724759640453
  12     0.015848288619289
  13     -0.29490827452447
  14    -0.022662273776941
  15                     0
  16                     0
  17                     0
  18      0.33423291279921
  19    2.0465863341462e-17
  20                     0
  21    0.0069724759640453
  22    -0.015848288619289
  23     -0.29490827452447
  24     0.022662273776941
  25                     0
  26    -0.0069724759640453
  27     0.015848288619289
  28      0.29490827452447
  29     0.022662273776941
  30                     0
  31                     0
  32      0.25755535918274
  33     -0.25755535918274
  34                     0
  35      0.25755535918274
  36     -0.25755535918274
 Sym= B3g
 Ene=   -0.2794941618
 Spin= Alpha
 Occup=    2.00000
   1                     0
   2                     0
   3                     0
   4                     0
   5                     0
   6                     0
   7                     0
   8                     0
   9                     0
  10      0.46050356413556
  11                     0
  12                     0
  13                     0
  14                     0
  15      0.46050356413556
  16                     0
  17                     0
  18                     0
  19                     0
  20                     0
  21                     0
  22                     0
  23                     0
  24                     0
  25     -0.46050356413556
  26                     0
  27                     0
  28                     0
  29                     0
  30     -0.46050356413556
  31                     0
  32                     0
  33                     0
  34                     0
  35                     0
  36                     0
 Sym= B2g
 Ene=   -0.2794889487
 Spin= Alpha
 Occup=    2.00000
   1                     0
   2                     0
   3                     0
   4                     0
   5      0.53175482940658
   6                     0
   7                     0
   8                     0
   9                     0
  10      0.26586653103853
  11                     0
  12                     0
  13                     0
  14                     0
  15     -0.26586653103853
  16                     0
  17                     0
  18                     0
  19                     0
  20     -0.53175482940658
  21                     0
  22                     0
  23                     0
  24                     0
  25     -0.26586653103853
  26                     0
  27                     0
  28                     0
  29                     0
  30      0.26586653103853
  31                     0
  32                     0
  33                     0
  34                     0
  35                     0
  36                     0
 Sym= B1u
 Ene=    0.2683232813
 Spin= Alpha
 Occup=    0.00000
   1                     0
   2                     0
   3                     0
   4                     0
   5      0.65794606760291
   6                     0
   7                     0
   8                     0
   9                     0
  10     -0.32897383032777
  11                     0
  12                     0
  13                     0
  14                     0
  15     -0.32897383032777
  16                     0
  17                     0
  18                     0
  19                     0
  20      0.65794606760291
  21                     0
  22                     0
  23                     0
  24                     0
  25     -0.32897383032777
  26                     0
  27                     0
  28                     0
  29                     0
  30     -0.32897383032777
  31                     0
  32                     0
  33                     0
  34                     0
  35                     0
  36                     0
 Sym= Au
 Ene=    0.2683414658
 Spin= Alpha
 Occup=    0.00000
   1                     0
   2                     0
   3                     0
   4                     0
   5                     0
   6                     0
   7                     0
   8                     0
   9                     0
  10      0.56980225207943
  11                     0
  12                     0
  13                     0
  14                     0
  15     -0.56980225207943
  16                     0
  17                     0
  18                     0
  19                     0
  20                     0
  21                     0
  22                     0
  23                     0
  24                     0
  25      0.56980225207943
  26                     0
  27                     0
  28                     0
  29                     0
  30     -0.56980225207943
  31                     0
  32                     0
  33                     0
  34                     0
  35                     0
  36                     0
 Sym= B2g
 Ene=    0.5027348462
 Spin= Alpha
 Occup=    0.00000
   1                     0
   2                     0
   3                     0
   4                     0
   5      -0.5219120532138
   6                     0
   7                     0
   8                     0
   9                     0
  10      0.52192796581945
  11                     0
  12                     0
  13                     0
  14                     0
  15     -0.52192796581945
  16                     0
  17                     0
  18                     0
  19                     0
  20       0.5219120532138
  21                     0
  22                     0
  23                     0
  24                     0
  25     -0.52192796581945
  26                     0
  27                     0
  28                     0
  29                     0
  30      0.52192796581945
  31                     0
  32                     0
  33                     0
  34                     0
  35                     0
  36                     0
 Sym= Ag
 Ene=    0.5807591944
 Spin= Alpha
 Occup=    0.00000
   1     0.052651371043308
   2     -0.33482203299295
   3    1.9339944996228e-17
   4     -0.31584527081103
   5                     0
   6     0.052669504616937
   7     -0.33486081680139
   8     -0.27399935299747
   9     -0.15828001275863
  10                     0
  11     0.052669504616937
  12     -0.33486081680139
  13     -0.27399935299747
  14      0.15828001275863
  15                     0
  16     0.052651371043308
  17     -0.33482203299295
  18    -1.9339944996228e-17