[Molden Format]
made by pyscf v[2.12.1]
[Atoms] (AU)
O   1   8     0.00000000000000     0.00000000000000     0.00000000000000
H   2   1     1.43082503247568     1.10787083778751     0.00000000000000
H   3   1    -1.43082503247568     1.10787083778751     0.00000000000000
[GTO]
1 0
 s    3 1.00
             130.70932    0.15432896872316
             23.808861    0.53532813557095
             6.4436083    0.44463453632131
 s    3 1.00
             5.0331513  -0.099967228656673
             1.1695961    0.39951282463148
              0.380389    0.70011546059208
 p    3 1.00
             5.0331513    0.15591626847816
             1.1695961    0.60768371406861
              0.380389    0.39195738617424

2 0
 s    3 1.00
            3.42525091    0.15432897070298
            0.62391373    0.53532814243847
             0.1688554    0.44463454202535

3 0
 s    3 1.00
            3.42525091    0.15432897070298
            0.62391373    0.53532814243847
             0.1688554    0.44463454202535

[5d]
[7f]
[9g]

[MO]
 Sym= A
 Ene=    -20.24181341
 Spin= Alpha
 Occup=    2.00000
   1      0.99413046658706
   2     0.026553667070364
   3    8.8372668958408e-18
   4    0.0043431592414591
   5    5.0073006476628e-34
   6    -0.005967456846378
   7    -0.005967456846378
 Sym= A
 Ene=    -1.268229196
 Spin= Alpha
 Occup=    2.00000
   1     -0.23279949572832
   2      0.83363233782909
   3    1.4504711652383e-16
   4      0.12948290110211
   5    7.4878805022236e-32
   6      0.15869127696353
   7      0.15869127696353
 Sym= A
 Ene=   -0.6176907036
 Spin= Alpha
 Occup=    2.00000
   1    1.4022625631273e-16
   2    -4.8635534192552e-16
   3      0.60645645999901
   4    1.3408714565385e-15
   5    6.776258406497e-16
   6      0.44503995173579
   7     -0.44503995173579
 Sym= A
 Ene=   -0.4529955339
 Spin= Alpha
 Occup=    2.00000
   1      0.10316845760892
   2     -0.53679501568404
   3    -6.74391351466e-16
   4      0.77659342420973
   5    -2.8777222371468e-30
   6      0.27800850729917
   7      0.27800850729917
 Sym= A
 Ene=   -0.3912330487
 Spin= Alpha
 Occup=    2.00000
   1    2.8757953713182e-31
   2    -1.6462787894565e-30
   3    2.8880226283458e-18
   4    1.481370929628e-30
   5                     1
   6    -4.4362225282305e-16
   7    4.4362225282305e-16
 Sym= A
 Ene=    0.6053143006
 Spin= Alpha
 Occup=    0.00000
   1     -0.13232622084112
   2      0.88402001266615
   3    2.4333100022818e-15
   4      0.74240128144842
   5    4.2204712293249e-31
   6     -0.79685006206185
   7     -0.79685006206184
 Sym= A
 Ene=    0.7418680088
 Spin= Alpha
 Occup=    0.00000
   1    3.5548742501295e-16
   2    -2.4030485843962e-15
   3      0.99031502824862
   4    -2.1308403463832e-15
   5    2.1169407368661e-16
   6     -0.83834854554152
   7      0.83834854554152

[FREQ]
2042.2778651037
4490.1568540958
4792.6324264867
[FR-COORD]
O 0.0000000000 0.0000000000 0.0000000000
H 1.4308250325 1.1078708378 0.0000000000
H -1.4308250325 1.1078708378 0.0000000000
[FR-NORM-COORD]
vibration 1
-0.0000000000 0.0674025145 0.0000000000
0.4169556226 -0.5349071577 -0.0000000000
-0.4169556226 -0.5349071577 -0.0000000000
vibration 2
-0.0000000000 0.0495127228 0.0000000000
-0.5676088044 -0.3929335579 -0.0000000000
0.5676088044 -0.3929335579 -0.0000000000
vibration 3
0.0675602379 0.0000000000 0.0000000000
-0.5361588527 -0.4151414350 -0.0000000000
-0.5361588527 0.4151414350 -0.0000000000
